# OOMMF OVF 2.0
#
# Segment count: 1
#
# Begin: Segment
# Begin: Header
#
# Title: title
#
# desc: OVF file generated by ovf2io.py.
#
# meshunit: pt
#
# meshtype: irregular
#
# pointcount: 6
#
# xmin: 0
# ymin: 0.0
# zmin: 0.0
# xmax: 5
# ymax: 0.0
# zmax: 0.0
#
# valuedim: 2
#
# valueunits:  1 1
# valuelabels: value_0 value_1
#
# End: Header
# Begin: Data text
0.000000000000000000e+00 0.000000000000000000e+00 0.000000000000000000e+00 0.000000000000000000e+00 0.000000000000000000e+00
1.000000000000000000e+00 0.000000000000000000e+00 0.000000000000000000e+00 1.000000000000000000e+00 0.000000000000000000e+00
2.000000000000000000e+00 0.000000000000000000e+00 0.000000000000000000e+00 0.000000000000000000e+00 1.000000000000000000e+00
3.000000000000000000e+00 0.000000000000000000e+00 0.000000000000000000e+00 1.000000000000000000e+00 1.000000000000000000e+00
4.000000000000000000e+00 0.000000000000000000e+00 0.000000000000000000e+00 0.000000000000000000e+00 2.000000000000000000e+00
5.000000000000000000e+00 0.000000000000000000e+00 0.000000000000000000e+00 1.000000000000000000e+00 2.000000000000000000e+00
# End: Data text
# End: Segment