# OOMMF OVF 2.0
#
# Segment count: 1
#
# Begin: Segment
# Begin: Header
#
# Title: Long file name or title goes here ## and a comment
#
# Desc: Optional description line 1.
# Desc: Optional description line 2.
# Desc: ...
#
## Fundamental mesh measurement unit.  Treated as a label:
# meshunit: nm
#
# meshtype: irregular
# pointcount: 5      ## Number of nodes in mesh
#
# xmin:    1.    ## Corner points defining mesh bounding box in
# ymin:    6.    ## 'meshunit'.  Floating point values.
# zmin:    11.
# xmax:   5.
# ymax:    10.
# zmax:    15.
#
# valuedim: 2    ## Value dimension
#
## Fundamental field value units, treated as labels (i.e., unparsed).
## In general, there should be one label for each value dimension.
# valueunits:  J/m^3  A/m
# valuelabels: "Zeeman energy density"  "Anisotropy field"
#
# End: Header
#
## Each data records consists of N+3 values: the (x,y,z) node
## location, followed by the N value components.  In this example,
## N+3 = 5, the two value components are in units of J/m^3 and A/m,
## corresponding to Zeeman energy density and a magneto-crystalline
## anisotropy field, respectively.
## Begin: data text
1.0 6.0 11.0 500. 4e4
2.0 7.0 12.0 600. 5e4
3.0 8.0 13.0 700. 6e4
4.0 9.0 14.0 800. 7e4
5.0 10.0 15.0 900. 8e4
# End: data text
# End: Segment