# OOMMF OVF 2.0
#
# Segment count: 1
#
# Begin: Segment
# Begin: Header
#
# Title: Long file name or title goes here ## and a comment
#
# Desc: Optional description line 1.
# Desc: Optional description line 2.
# Desc: ...
#
## Fundamental mesh measurement unit.  Treated as a label:
# meshunit: m
#
# meshtype: rectangular
#
# xmin:    -0.5    ## Corner points defining mesh bounding box in
# ymin:    -0.5    ## 'meshunit'.  Floating point values.
# zmin:    -0.5
# xmax:   1.5
# ymax:    1.5
# zmax:    1.5
# xstepsize : 1
# ystepsize : 1
# zstepsize : 1
# xbase : 0.0
# ybase : 0.0
# zbase : 0.0
# xnodes : 2
# ynodes : 3
# znodes : 4
#
# valuedim: 3    ## Value dimension
#
## Fundamental field value units, treated as labels (i.e., unparsed).
## In general, there should be one label for each value dimension.
# valueunits:  m
# valuelabels: "x_value"  "y_value" "z_value"
#
# End: Header
## Begin: data text
0 0 0
1 0 0
0 1 0
1 1 0
0 2 0
1 2 0
0 0 1
1 0 1
0 1 1
1 1 1
0 2 1
1 2 1
0 0 2
1 0 2
0 1 2
1 1 2
0 2 2
1 2 2
0 0 3
1 0 3
0 1 3
1 1 3
0 2 3
1 2 3
# End: data text
# End: Segment