# OOMMF OVF 2.0
#
# Segment count: 1
#
# Begin: Segment
# Begin: Header
#
# Title: Field
# Desc: File generated by Field class
# meshunit: m
# meshtype: rectangular
# xbase: 0.0
# ybase: 0.0
# zbase: 0.0
# xnodes: 2
# ynodes: 3
# znodes: 4
# xstepsize: 1.0
# ystepsize: 1.0
# zstepsize: 1.0
# xmin: -0.5
# ymin: -0.5
# zmin: -0.5
# xmax: 1.5
# ymax: 2.5
# zmax: 3.5
# valuedim: 3
# valuelabels: field_x field_y field_z
# valueunits: None None None
#
# End: Header
#
# Begin: Data Text
 0.0 0.0 0.0
 1.0 0.0 0.0
 0.0 1.0 0.0
 1.0 1.0 0.0
 0.0 2.0 0.0
 1.0 2.0 0.0
 0.0 0.0 1.0
 1.0 0.0 1.0
 0.0 1.0 1.0
 1.0 1.0 1.0
 0.0 2.0 1.0
 1.0 2.0 1.0
 0.0 0.0 2.0
 1.0 0.0 2.0
 0.0 1.0 2.0
 1.0 1.0 2.0
 0.0 2.0 2.0
 1.0 2.0 2.0
 0.0 0.0 3.0
 1.0 0.0 3.0
 0.0 1.0 3.0
 1.0 1.0 3.0
 0.0 2.0 3.0
 1.0 2.0 3.0
# End: Data Text
# End: Segement
